 %mem=400GB
 ------------------------------------------
 # freq oniom(mn15/def2svp:hf/def2svp:uff)
 ------------------------------------------
 Charge =  0 Multiplicity = 1
                          Input orientation:
 ------------------------------------------------------------------------
 Center     Atomic      Atomic             Coordinates (Angstroms)
 Number     Number       Type             X           Y           Z
 ------------------------------------------------------------------------
   1          6          0            -0.544821      -1.16946      0.000127
   2          6          0             0.837878      -1.04764       0.00019
   3          6          0                  0.0           0.0           0.0
   4          6          0             0.635835       1.36576        -4e-06
   5          6          0            -0.752139       1.25828       7.1e-05
   6          6          0             -1.32837     -0.011342      0.000156
   7          1          0             -1.02986      -2.14545      0.000102
   8          1          0              1.48532      -1.92624      0.000262
   9          1          0              1.10509       2.35271       5.3e-05
  10          1          0             -1.39139       2.14061      -1.3e-05
  11          6          0              2.91426      0.336382       1.4e-05
  12          8          0              3.66252     -0.603769     -0.000294
  13          1          0              3.30256       1.38424      0.000151
  14         17          0             -3.05563     -0.157896      -0.00014
 ------------------------------------------------------------------------

 SCF Done:  E(RONIOM(MN15) =  -321.371632108556  A.U. after   14 cycles
 Mulliken charges:
               1
      1   C     0.659556
      2   C      0.78087
      3   C     0.645483
      4   C     0.965249
      5   C     0.699062
      6   C     0.914533
      7   H     0.953793
      8   H     0.606866
      9   H     0.584221
     10   H     0.977958
     11   C     0.547273
     12   O     0.043264
     13   H     0.433128
     14  Cl     0.269168
 Elapsed time: xx
 Normal termination of Gaussian 16 (fake executable) at 2025-05-22 12:24:18.055918.
