 %mem=400GB
 ------------------------------------------
 # freq oniom(mn15/def2svp:hf/def2svp:uff)
 ------------------------------------------
 Charge =  0 Multiplicity = 1
                          Input orientation:
 ------------------------------------------------------------------------
 Center     Atomic      Atomic             Coordinates (Angstroms)
 Number     Number       Type             X           Y           Z
 ------------------------------------------------------------------------
   1          9          0             -1.04151           0.0      -2.12611
   2          9          0             -2.03368      -1.14289     -0.412219
   3          9          0                  0.0           0.0           0.0
   4          6          0             -1.29904           0.0         -0.75
   5          6          0                  0.0           0.0           0.0
   6          1          0                  0.0           0.0           1.1
   7          8          0              1.12583           0.0         -0.65
 ------------------------------------------------------------------------

 SCF Done:  E(RONIOM(MN15) =  -378.71425678148387  A.U. after   14 cycles
 Mulliken charges:
               1
      1   F     0.236457
      2   F     0.696391
      3   F     0.474331
      4   C     0.990656
      5   C      0.34105
      6   H     0.623887
      7   O     0.801089
 Elapsed time: xx
 Normal termination of Gaussian 16 (fake executable) at 2025-05-22 12:23:50.577083.
