 %mem=400GB
 ------------------------------------------
 # freq oniom(mn15/def2svp:hf/def2svp:uff)
 ------------------------------------------
 Charge =  0 Multiplicity = 1
                          Input orientation:
 ------------------------------------------------------------------------
 Center     Atomic      Atomic             Coordinates (Angstroms)
 Number     Number       Type             X           Y           Z
 ------------------------------------------------------------------------
   1          9          0                  0.0           0.0           0.0
   2          9          0             -2.03368      -1.14289     -0.412219
   3          9          0             -2.03368       1.14289     -0.412219
   4          6          0                  0.0           0.0           0.0
   5          6          0                  0.0           0.0           0.0
   6          1          0                  0.0           0.0           1.1
   7          8          0              1.12583           0.0         -0.65
 ------------------------------------------------------------------------

 SCF Done:  E(RONIOM(MN15) =  -6.261006967082539  A.U. after   14 cycles
 Mulliken charges:
               1
      1   F     0.249774
      2   F       0.2118
      3   F     0.759337
      4   C     0.960253
      5   C     0.446665
      6   H      0.56075
      7   O     0.817886
 Elapsed time: xx
 Normal termination of Gaussian 16 (fake executable) at 2025-04-28 11:07:02.417725.
